<?xml version="1.0" encoding="UTF-8"?>

<!-- generated on 2021-11-12 13:07:21 by Eclipse SUMO GUI Version 1.10.0
<configuration xmlns:xsi="http://www.w3.org/2001/XMLSchema-instance" xsi:noNamespaceSchemaLocation="http://sumo.dlr.de/xsd/sumoConfiguration.xsd">

    <input>
        <net-file value="my_net.net.xml"/>
        <route-files value="my_net.rou.xml"/>
    </input>

    <output>
        <tripinfo-output value="tripinfo.xml"/>
    </output>

    <time>
        <begin value="0"/>
    </time>

    <report>
        <verbose value="true"/>
        <no-step-log value="true"/>
    </report>

    <traci_server>
        <remote-port value="55269"/>
    </traci_server>

</configuration>
-->

<tripinfos xmlns:xsi="http://www.w3.org/2001/XMLSchema-instance" xsi:noNamespaceSchemaLocation="http://sumo.dlr.de/xsd/tripinfo_file.xsd">
    <tripinfo id="up_2" depart="0.00" departLane="4i_0" departPos="5.10" departSpeed="0.00" departDelay="0.00" arrival="39.00" arrivalLane="2o_0" arrivalPos="183.20" arrivalSpeed="13.96" duration="39.00" routeLength="394.90" waitingTime="0.00" waitingCount="0" stopTime="0.00" timeLoss="9.92" rerouteNo="0" devices="tripinfo_up_2" vType="car" speedFactor="1.01" vaporized=""/>
    <tripinfo id="down_1" depart="0.00" departLane="2i_0" departPos="5.10" departSpeed="0.00" departDelay="0.00" arrival="41.00" arrivalLane="4o_0" arrivalPos="183.20" arrivalSpeed="12.81" duration="41.00" routeLength="394.90" waitingTime="0.00" waitingCount="0" stopTime="0.00" timeLoss="10.48" rerouteNo="0" devices="tripinfo_down_1" vType="car" speedFactor="0.94" vaporized=""/>
    <tripinfo id="up_3" depart="4.00" departLane="4i_0" departPos="5.10" departSpeed="0.00" departDelay="3.00" arrival="43.00" arrivalLane="2o_0" arrivalPos="183.20" arrivalSpeed="14.73" duration="39.00" routeLength="394.90" waitingTime="0.00" waitingCount="0" stopTime="0.00" timeLoss="12.71" rerouteNo="0" devices="tripinfo_up_3" vType="car" speedFactor="1.08" vaporized=""/>
    <tripinfo id="up_10" depart="10.00" departLane="4i_0" departPos="5.10" departSpeed="0.00" departDelay="6.00" arrival="49.00" arrivalLane="2o_0" arrivalPos="183.20" arrivalSpeed="15.14" duration="39.00" routeLength="394.90" waitingTime="0.00" waitingCount="0" stopTime="0.00" timeLoss="12.60" rerouteNo="0" devices="tripinfo_up_10" vType="car" speedFactor="1.09" vaporized=""/>
    <tripinfo id="down_5" depart="5.00" departLane="2i_0" departPos="5.10" departSpeed="0.00" departDelay="3.00" arrival="50.00" arrivalLane="4o_0" arrivalPos="183.20" arrivalSpeed="11.51" duration="45.00" routeLength="394.90" waitingTime="0.00" waitingCount="0" stopTime="0.00" timeLoss="10.48" rerouteNo="0" devices="tripinfo_down_5" vType="car" speedFactor="0.83" vaporized=""/>
    <tripinfo id="down_8" depart="11.00" departLane="2i_0" departPos="5.10" departSpeed="0.00" departDelay="8.00" arrival="53.00" arrivalLane="4o_0" arrivalPos="183.20" arrivalSpeed="12.92" duration="42.00" routeLength="394.90" waitingTime="0.00" waitingCount="0" stopTime="0.00" timeLoss="11.33" rerouteNo="0" devices="tripinfo_down_8" vType="car" speedFactor="0.94" vaporized=""/>
    <tripinfo id="up_12" depart="15.00" departLane="4i_0" departPos="5.10" departSpeed="0.00" departDelay="10.00" arrival="54.00" arrivalLane="2o_0" arrivalPos="183.20" arrivalSpeed="14.23" duration="39.00" routeLength="394.90" waitingTime="0.00" waitingCount="0" stopTime="0.00" timeLoss="11.33" rerouteNo="0" devices="tripinfo_up_12" vType="car" speedFactor="1.05" vaporized=""/>
    <tripinfo id="down_11" depart="16.00" departLane="2i_0" departPos="5.10" departSpeed="0.00" departDelay="11.00" arrival="56.00" arrivalLane="4o_0" arrivalPos="183.20" arrivalSpeed="13.91" duration="40.00" routeLength="394.90" waitingTime="0.00" waitingCount="0" stopTime="0.00" timeLoss="12.05" rerouteNo="0" devices="tripinfo_down_11" vType="car" speedFactor="1.03" vaporized=""/>
    <tripinfo id="right_25" depart="18.00" departLane="3i_0" departPos="5.10" departSpeed="0.00" departDelay="5.00" arrival="67.00" arrivalLane="1o_1" arrivalPos="183.20" arrivalSpeed="11.81" duration="49.00" routeLength="394.90" waitingTime="0.00" waitingCount="0" stopTime="0.00" timeLoss="16.21" rerouteNo="0" devices="tripinfo_right_25" vType="car" speedFactor="0.87" vaporized=""/>
    <tripinfo id="right_27" depart="23.00" departLane="3i_0" departPos="5.10" departSpeed="0.00" departDelay="9.00" arrival="69.00" arrivalLane="1o_2" arrivalPos="183.20" arrivalSpeed="12.88" duration="46.00" routeLength="394.90" waitingTime="0.00" waitingCount="0" stopTime="0.00" timeLoss="15.12" rerouteNo="0" devices="tripinfo_right_27" vType="car" speedFactor="0.95" vaporized=""/>
    <tripinfo id="left_0" depart="0.00" departLane="1i_0" departPos="5.10" departSpeed="0.00" departDelay="0.00" arrival="70.00" arrivalLane="3o_0" arrivalPos="183.20" arrivalSpeed="14.40" duration="70.00" routeLength="394.90" waitingTime="18.00" waitingCount="1" stopTime="0.00" timeLoss="42.75" rerouteNo="0" devices="tripinfo_left_0" vType="car" speedFactor="1.06" vaporized=""/>
    <tripinfo id="right_33" depart="28.00" departLane="3i_0" departPos="5.10" departSpeed="0.00" departDelay="11.00" arrival="70.00" arrivalLane="1o_2" arrivalPos="183.20" arrivalSpeed="14.01" duration="42.00" routeLength="394.90" waitingTime="0.00" waitingCount="0" stopTime="0.00" timeLoss="17.45" rerouteNo="0" devices="tripinfo_right_33" vType="car" speedFactor="1.17" vaporized=""/>
    <tripinfo id="left_4" depart="5.00" departLane="1i_0" departPos="5.10" departSpeed="0.00" departDelay="3.00" arrival="71.00" arrivalLane="3o_0" arrivalPos="183.20" arrivalSpeed="13.99" duration="66.00" routeLength="394.90" waitingTime="13.00" waitingCount="1" stopTime="0.00" timeLoss="38.29" rerouteNo="0" devices="tripinfo_left_4" vType="car" speedFactor="1.03" vaporized=""/>
    <tripinfo id="right_6" depart="3.00" departLane="3i_0" departPos="5.10" departSpeed="0.00" departDelay="0.00" arrival="71.00" arrivalLane="1o_0" arrivalPos="183.20" arrivalSpeed="14.40" duration="68.00" routeLength="394.90" waitingTime="15.00" waitingCount="1" stopTime="0.00" timeLoss="39.87" rerouteNo="0" devices="tripinfo_right_6" vType="car" speedFactor="1.05" vaporized=""/>
    <tripinfo id="right_9" depart="8.00" departLane="3i_0" departPos="5.10" departSpeed="0.00" departDelay="4.00" arrival="72.00" arrivalLane="1o_1" arrivalPos="183.20" arrivalSpeed="11.51" duration="64.00" routeLength="394.90" waitingTime="9.00" waitingCount="1" stopTime="0.00" timeLoss="30.75" rerouteNo="0" devices="tripinfo_right_9" vType="car" speedFactor="0.86" vaporized=""/>
    <tripinfo id="right_19" depart="13.00" departLane="3i_0" departPos="5.10" departSpeed="0.00" departDelay="2.00" arrival="72.00" arrivalLane="1o_0" arrivalPos="183.20" arrivalSpeed="15.64" duration="59.00" routeLength="394.90" waitingTime="6.00" waitingCount="1" stopTime="0.00" timeLoss="34.21" rerouteNo="0" devices="tripinfo_right_19" vType="car" speedFactor="1.16" vaporized=""/>
    <tripinfo id="left_16" depart="15.00" departLane="1i_0" departPos="5.10" departSpeed="0.00" departDelay="5.00" arrival="73.00" arrivalLane="3o_2" arrivalPos="183.20" arrivalSpeed="12.18" duration="58.00" routeLength="394.90" waitingTime="2.00" waitingCount="1" stopTime="0.00" timeLoss="24.72" rerouteNo="0" devices="tripinfo_left_16" vType="car" speedFactor="0.88" vaporized=""/>
    <tripinfo id="left_20" depart="20.00" departLane="1i_0" departPos="5.10" departSpeed="0.00" departDelay="9.00" arrival="73.00" arrivalLane="3o_1" arrivalPos="183.20" arrivalSpeed="13.94" duration="53.00" routeLength="394.90" waitingTime="0.00" waitingCount="0" stopTime="0.00" timeLoss="24.76" rerouteNo="0" devices="tripinfo_left_20" vType="car" speedFactor="1.02" vaporized=""/>
    <tripinfo id="left_7" depart="10.00" departLane="1i_0" departPos="5.10" departSpeed="0.00" departDelay="7.00" arrival="74.00" arrivalLane="3o_0" arrivalPos="183.20" arrivalSpeed="12.07" duration="64.00" routeLength="394.90" waitingTime="10.00" waitingCount="1" stopTime="0.00" timeLoss="31.42" rerouteNo="0" devices="tripinfo_left_7" vType="car" speedFactor="0.89" vaporized=""/>
    <tripinfo id="left_36" depart="31.00" departLane="1i_0" departPos="5.10" departSpeed="0.00" departDelay="13.00" arrival="74.00" arrivalLane="3o_2" arrivalPos="183.20" arrivalSpeed="12.49" duration="43.00" routeLength="394.90" waitingTime="0.00" waitingCount="0" stopTime="0.00" timeLoss="13.53" rerouteNo="0" devices="tripinfo_left_36" vType="car" speedFactor="0.97" vaporized=""/>
    <tripinfo id="right_44" depart="33.00" departLane="3i_0" departPos="5.10" departSpeed="0.00" departDelay="11.00" arrival="74.00" arrivalLane="1o_0" arrivalPos="183.20" arrivalSpeed="14.12" duration="41.00" routeLength="394.90" waitingTime="0.00" waitingCount="0" stopTime="0.00" timeLoss="13.34" rerouteNo="0" devices="tripinfo_right_44" vType="car" speedFactor="1.04" vaporized=""/>
    <tripinfo id="left_34" depart="25.00" departLane="1i_0" departPos="5.10" departSpeed="0.00" departDelay="8.00" arrival="76.00" arrivalLane="3o_0" arrivalPos="183.20" arrivalSpeed="13.30" duration="51.00" routeLength="394.90" waitingTime="0.00" waitingCount="0" stopTime="0.00" timeLoss="21.61" rerouteNo="0" devices="tripinfo_left_34" vType="car" speedFactor="0.99" vaporized=""/>
    <tripinfo id="left_41" depart="36.00" departLane="1i_0" departPos="5.10" departSpeed="0.00" departDelay="16.00" arrival="77.00" arrivalLane="3o_0" arrivalPos="183.20" arrivalSpeed="13.20" duration="41.00" routeLength="394.90" waitingTime="0.00" waitingCount="0" stopTime="0.00" timeLoss="11.11" rerouteNo="0" devices="tripinfo_left_41" vType="car" speedFactor="0.96" vaporized=""/>
    <tripinfo id="left_43" depart="41.00" departLane="1i_0" departPos="5.10" departSpeed="0.00" departDelay="20.00" arrival="81.00" arrivalLane="3o_0" arrivalPos="183.20" arrivalSpeed="14.28" duration="40.00" routeLength="394.90" waitingTime="0.00" waitingCount="0" stopTime="0.00" timeLoss="12.61" rerouteNo="0" devices="tripinfo_left_43" vType="car" speedFactor="1.04" vaporized=""/>
    <tripinfo id="right_49" depart="38.00" departLane="3i_0" departPos="5.10" departSpeed="0.00" departDelay="13.00" arrival="82.00" arrivalLane="1o_0" arrivalPos="183.20" arrivalSpeed="11.77" duration="44.00" routeLength="394.90" waitingTime="0.00" waitingCount="0" stopTime="0.00" timeLoss="9.87" rerouteNo="0" devices="tripinfo_right_49" vType="car" speedFactor="0.85" vaporized=""/>
    <tripinfo id="left_45" depart="46.00" departLane="1i_0" departPos="5.10" departSpeed="0.00" departDelay="24.00" arrival="85.00" arrivalLane="3o_0" arrivalPos="183.20" arrivalSpeed="14.86" duration="39.00" routeLength="394.90" waitingTime="0.00" waitingCount="0" stopTime="0.00" timeLoss="12.38" rerouteNo="0" devices="tripinfo_left_45" vType="car" speedFactor="1.09" vaporized=""/>
    <tripinfo id="right_50" depart="43.00" departLane="3i_0" departPos="5.10" departSpeed="0.00" departDelay="17.00" arrival="86.00" arrivalLane="1o_0" arrivalPos="183.20" arrivalSpeed="11.74" duration="43.00" routeLength="394.90" waitingTime="0.00" waitingCount="0" stopTime="0.00" timeLoss="9.70" rerouteNo="0" devices="tripinfo_right_50" vType="car" speedFactor="0.85" vaporized=""/>
    <tripinfo id="right_54" depart="48.00" departLane="3i_0" departPos="5.10" departSpeed="0.00" departDelay="19.00" arrival="89.00" arrivalLane="1o_0" arrivalPos="183.20" arrivalSpeed="13.60" duration="41.00" routeLength="394.90" waitingTime="0.00" waitingCount="0" stopTime="0.00" timeLoss="12.56" rerouteNo="0" devices="tripinfo_right_54" vType="car" speedFactor="1.00" vaporized=""/>
    <tripinfo id="left_53" depart="51.00" departLane="1i_0" departPos="5.10" departSpeed="0.00" departDelay="23.00" arrival="90.00" arrivalLane="3o_0" arrivalPos="183.20" arrivalSpeed="15.06" duration="39.00" routeLength="394.90" waitingTime="0.00" waitingCount="0" stopTime="0.00" timeLoss="12.97" rerouteNo="0" devices="tripinfo_left_53" vType="car" speedFactor="1.10" vaporized=""/>
    <tripinfo id="right_57" depart="54.00" departLane="3i_0" departPos="5.10" departSpeed="0.00" departDelay="23.00" arrival="92.00" arrivalLane="1o_0" arrivalPos="183.20" arrivalSpeed="15.53" duration="38.00" routeLength="394.90" waitingTime="0.00" waitingCount="0" stopTime="0.00" timeLoss="12.76" rerouteNo="0" devices="tripinfo_right_57" vType="car" speedFactor="1.14" vaporized=""/>
    <tripinfo id="left_58" depart="56.00" departLane="1i_0" departPos="5.10" departSpeed="0.00" departDelay="25.00" arrival="96.00" arrivalLane="3o_0" arrivalPos="183.20" arrivalSpeed="14.11" duration="40.00" routeLength="394.90" waitingTime="0.00" waitingCount="0" stopTime="0.00" timeLoss="11.48" rerouteNo="0" devices="tripinfo_left_58" vType="car" speedFactor="1.02" vaporized=""/>
    <tripinfo id="right_63" depart="59.00" departLane="3i_0" departPos="5.10" departSpeed="0.00" departDelay="25.00" arrival="100.00" arrivalLane="1o_0" arrivalPos="183.20" arrivalSpeed="13.52" duration="41.00" routeLength="394.90" waitingTime="0.00" waitingCount="0" stopTime="0.00" timeLoss="12.06" rerouteNo="0" devices="tripinfo_right_63" vType="car" speedFactor="0.99" vaporized=""/>
    <tripinfo id="left_66" depart="61.00" departLane="1i_0" departPos="5.10" departSpeed="0.00" departDelay="25.00" arrival="104.00" arrivalLane="3o_0" arrivalPos="183.20" arrivalSpeed="12.49" duration="43.00" routeLength="394.90" waitingTime="0.00" waitingCount="0" stopTime="0.00" timeLoss="11.37" rerouteNo="0" devices="tripinfo_left_66" vType="car" speedFactor="0.91" vaporized=""/>
    <tripinfo id="up_38" depart="51.00" departLane="4i_0" departPos="5.10" departSpeed="0.00" departDelay="33.00" arrival="115.00" arrivalLane="2o_3" arrivalPos="183.20" arrivalSpeed="14.92" duration="64.00" routeLength="394.90" waitingTime="10.00" waitingCount="1" stopTime="0.00" timeLoss="37.89" rerouteNo="0" devices="tripinfo_up_38" vType="car" speedFactor="1.10" vaporized=""/>
    <tripinfo id="down_13" depart="21.00" departLane="2i_0" departPos="5.10" departSpeed="0.00" departDelay="15.00" arrival="116.00" arrivalLane="4o_0" arrivalPos="183.20" arrivalSpeed="15.40" duration="95.00" routeLength="394.90" waitingTime="43.00" waitingCount="1" stopTime="0.00" timeLoss="69.13" rerouteNo="0" devices="tripinfo_down_13" vType="car" speedFactor="1.12" vaporized=""/>
    <tripinfo id="up_14" depart="20.00" departLane="4i_0" departPos="5.10" departSpeed="0.00" departDelay="14.00" arrival="116.00" arrivalLane="2o_0" arrivalPos="183.20" arrivalSpeed="13.48" duration="96.00" routeLength="394.90" waitingTime="42.00" waitingCount="1" stopTime="0.00" timeLoss="66.75" rerouteNo="0" devices="tripinfo_up_14" vType="car" speedFactor="0.99" vaporized=""/>
    <tripinfo id="up_18" depart="25.00" departLane="4i_0" departPos="5.10" departSpeed="0.00" departDelay="15.00" arrival="116.00" arrivalLane="2o_1" arrivalPos="183.20" arrivalSpeed="12.84" duration="91.00" routeLength="394.90" waitingTime="37.00" waitingCount="1" stopTime="0.00" timeLoss="60.29" rerouteNo="0" devices="tripinfo_up_18" vType="car" speedFactor="0.94" vaporized=""/>
    <tripinfo id="down_21" depart="36.00" departLane="2i_0" departPos="5.10" departSpeed="0.00" departDelay="25.00" arrival="116.00" arrivalLane="4o_2" arrivalPos="183.20" arrivalSpeed="13.80" duration="80.00" routeLength="394.90" waitingTime="25.00" waitingCount="1" stopTime="0.00" timeLoss="51.57" rerouteNo="0" devices="tripinfo_down_21" vType="car" speedFactor="1.01" vaporized=""/>
    <tripinfo id="down_15" depart="26.00" departLane="2i_0" departPos="5.10" departSpeed="0.00" departDelay="18.00" arrival="117.00" arrivalLane="4o_0" arrivalPos="183.20" arrivalSpeed="12.61" duration="91.00" routeLength="394.90" waitingTime="37.00" waitingCount="1" stopTime="0.00" timeLoss="59.61" rerouteNo="0" devices="tripinfo_down_15" vType="car" speedFactor="0.93" vaporized=""/>
    <tripinfo id="up_24" depart="36.00" departLane="4i_0" departPos="5.10" departSpeed="0.00" departDelay="24.00" arrival="117.00" arrivalLane="2o_2" arrivalPos="183.20" arrivalSpeed="11.34" duration="81.00" routeLength="394.90" waitingTime="26.00" waitingCount="1" stopTime="0.00" timeLoss="46.54" rerouteNo="0" devices="tripinfo_up_24" vType="car" speedFactor="0.83" vaporized=""/>
    <tripinfo id="down_28" depart="51.00" departLane="2i_0" departPos="5.10" departSpeed="0.00" departDelay="37.00" arrival="117.00" arrivalLane="4o_3" arrivalPos="183.20" arrivalSpeed="15.57" duration="66.00" routeLength="394.90" waitingTime="10.00" waitingCount="1" stopTime="0.00" timeLoss="40.14" rerouteNo="0" devices="tripinfo_down_28" vType="car" speedFactor="1.13" vaporized=""/>
    <tripinfo id="up_22" depart="31.00" departLane="4i_0" departPos="5.10" departSpeed="0.00" departDelay="20.00" arrival="118.00" arrivalLane="2o_0" arrivalPos="183.20" arrivalSpeed="13.48" duration="87.00" routeLength="394.90" waitingTime="34.00" waitingCount="1" stopTime="0.00" timeLoss="57.41" rerouteNo="0" devices="tripinfo_up_22" vType="car" speedFactor="0.98" vaporized=""/>
    <tripinfo id="up_29" depart="41.00" departLane="4i_0" departPos="5.10" departSpeed="0.00" departDelay="27.00" arrival="118.00" arrivalLane="2o_1" arrivalPos="183.20" arrivalSpeed="12.93" duration="77.00" routeLength="394.90" waitingTime="24.00" waitingCount="1" stopTime="0.00" timeLoss="45.83" rerouteNo="0" devices="tripinfo_up_29" vType="car" speedFactor="0.93" vaporized=""/>
    <tripinfo id="down_30" depart="56.00" departLane="2i_0" departPos="5.10" departSpeed="0.00" departDelay="41.00" arrival="118.00" arrivalLane="4o_2" arrivalPos="183.20" arrivalSpeed="16.00" duration="62.00" routeLength="394.90" waitingTime="6.00" waitingCount="1" stopTime="0.00" timeLoss="37.86" rerouteNo="0" devices="tripinfo_down_30" vType="car" speedFactor="1.18" vaporized=""/>
    <tripinfo id="up_56" depart="71.00" departLane="4i_0" departPos="5.10" departSpeed="0.00" departDelay="42.00" arrival="118.00" arrivalLane="2o_3" arrivalPos="183.20" arrivalSpeed="12.43" duration="47.00" routeLength="394.90" waitingTime="0.00" waitingCount="0" stopTime="0.00" timeLoss="14.75" rerouteNo="0" devices="tripinfo_up_56" vType="car" speedFactor="0.90" vaporized=""/>
    <tripinfo id="down_17" depart="31.00" departLane="2i_0" departPos="5.10" departSpeed="0.00" departDelay="21.00" arrival="119.00" arrivalLane="4o_0" arrivalPos="183.20" arrivalSpeed="12.81" duration="88.00" routeLength="394.90" waitingTime="34.00" waitingCount="1" stopTime="0.00" timeLoss="57.35" rerouteNo="0" devices="tripinfo_down_17" vType="car" speedFactor="0.94" vaporized=""/>
    <tripinfo id="down_37" depart="71.00" departLane="2i_0" departPos="5.10" departSpeed="0.00" departDelay="53.00" arrival="119.00" arrivalLane="4o_3" arrivalPos="183.20" arrivalSpeed="15.80" duration="48.00" routeLength="394.90" waitingTime="0.00" waitingCount="0" stopTime="0.00" timeLoss="23.09" rerouteNo="0" devices="tripinfo_down_37" vType="car" speedFactor="1.18" vaporized=""/>
    <tripinfo id="up_40" depart="56.00" departLane="4i_0" departPos="5.10" departSpeed="0.00" departDelay="37.00" arrival="119.00" arrivalLane="2o_2" arrivalPos="183.20" arrivalSpeed="12.65" duration="63.00" routeLength="394.90" waitingTime="7.00" waitingCount="1" stopTime="0.00" timeLoss="35.04" rerouteNo="0" devices="tripinfo_up_40" vType="car" speedFactor="1.03" vaporized=""/>
    <tripinfo id="down_23" depart="41.00" departLane="2i_0" departPos="5.10" departSpeed="0.00" departDelay="29.00" arrival="120.00" arrivalLane="4o_1" arrivalPos="183.20" arrivalSpeed="12.31" duration="79.00" routeLength="394.90" waitingTime="24.00" waitingCount="1" stopTime="0.00" timeLoss="46.06" rerouteNo="0" devices="tripinfo_down_23" vType="car" speedFactor="0.89" vaporized=""/>
    <tripinfo id="up_32" depart="46.00" departLane="4i_0" departPos="5.10" departSpeed="0.00" departDelay="30.00" arrival="120.00" arrivalLane="2o_0" arrivalPos="183.20" arrivalSpeed="13.64" duration="74.00" routeLength="394.90" waitingTime="20.00" waitingCount="1" stopTime="0.00" timeLoss="45.07" rerouteNo="0" devices="tripinfo_up_32" vType="car" speedFactor="1.01" vaporized=""/>
    <tripinfo id="up_48" depart="61.00" departLane="4i_0" departPos="5.10" departSpeed="0.00" departDelay="38.00" arrival="120.00" arrivalLane="2o_1" arrivalPos="183.20" arrivalSpeed="11.83" duration="59.00" routeLength="394.90" waitingTime="6.00" waitingCount="1" stopTime="0.00" timeLoss="26.30" rerouteNo="0" devices="tripinfo_up_48" vType="car" speedFactor="0.88" vaporized=""/>
    <tripinfo id="up_61" depart="76.00" departLane="4i_0" departPos="5.10" departSpeed="0.00" departDelay="44.00" arrival="120.00" arrivalLane="2o_3" arrivalPos="183.20" arrivalSpeed="14.44" duration="44.00" routeLength="394.90" waitingTime="0.00" waitingCount="0" stopTime="0.00" timeLoss="17.68" rerouteNo="0" devices="tripinfo_up_61" vType="car" speedFactor="1.12" vaporized=""/>
    <tripinfo id="down_26" depart="46.00" departLane="2i_0" departPos="5.10" departSpeed="0.00" departDelay="33.00" arrival="121.00" arrivalLane="4o_0" arrivalPos="183.20" arrivalSpeed="12.37" duration="75.00" routeLength="394.90" waitingTime="20.00" waitingCount="1" stopTime="0.00" timeLoss="43.65" rerouteNo="0" devices="tripinfo_down_26" vType="car" speedFactor="0.92" vaporized=""/>
    <tripinfo id="down_31" depart="61.00" departLane="2i_0" departPos="5.10" departSpeed="0.00" departDelay="45.00" arrival="121.00" arrivalLane="4o_1" arrivalPos="183.20" arrivalSpeed="12.95" duration="60.00" routeLength="394.90" waitingTime="5.00" waitingCount="1" stopTime="0.00" timeLoss="35.08" rerouteNo="0" devices="tripinfo_down_31" vType="car" speedFactor="1.15" vaporized=""/>
    <tripinfo id="down_39" depart="77.00" departLane="2i_0" departPos="5.10" departSpeed="0.00" departDelay="58.00" arrival="121.00" arrivalLane="4o_2" arrivalPos="183.20" arrivalSpeed="12.17" duration="44.00" routeLength="394.90" waitingTime="0.00" waitingCount="0" stopTime="0.00" timeLoss="12.26" rerouteNo="0" devices="tripinfo_down_39" vType="car" speedFactor="0.90" vaporized=""/>
    <tripinfo id="up_52" depart="66.00" departLane="4i_0" departPos="5.10" departSpeed="0.00" departDelay="39.00" arrival="122.00" arrivalLane="2o_0" arrivalPos="183.20" arrivalSpeed="14.03" duration="56.00" routeLength="394.90" waitingTime="2.00" waitingCount="1" stopTime="0.00" timeLoss="27.54" rerouteNo="0" devices="tripinfo_up_52" vType="car" speedFactor="1.02" vaporized=""/>
    <tripinfo id="down_35" depart="66.00" departLane="2i_0" departPos="5.10" departSpeed="0.00" departDelay="49.00" arrival="123.00" arrivalLane="4o_0" arrivalPos="183.20" arrivalSpeed="13.53" duration="57.00" routeLength="394.90" waitingTime="3.00" waitingCount="1" stopTime="0.00" timeLoss="28.39" rerouteNo="0" devices="tripinfo_down_35" vType="car" speedFactor="1.02" vaporized=""/>
    <tripinfo id="down_42" depart="82.00" departLane="2i_0" departPos="5.10" departSpeed="0.00" departDelay="62.00" arrival="124.00" arrivalLane="4o_0" arrivalPos="183.20" arrivalSpeed="13.46" duration="42.00" routeLength="394.90" waitingTime="0.00" waitingCount="0" stopTime="0.00" timeLoss="15.84" rerouteNo="0" devices="tripinfo_down_42" vType="car" speedFactor="1.09" vaporized=""/>
    <tripinfo id="up_64" depart="81.00" departLane="4i_0" departPos="5.10" departSpeed="0.00" departDelay="47.00" arrival="124.00" arrivalLane="2o_0" arrivalPos="183.20" arrivalSpeed="12.74" duration="43.00" routeLength="394.90" waitingTime="0.00" waitingCount="0" stopTime="0.00" timeLoss="12.39" rerouteNo="0" devices="tripinfo_up_64" vType="car" speedFactor="0.94" vaporized=""/>
    <tripinfo id="down_46" depart="87.00" departLane="2i_0" departPos="5.10" departSpeed="0.00" departDelay="65.00" arrival="126.00" arrivalLane="4o_0" arrivalPos="183.20" arrivalSpeed="13.73" duration="39.00" routeLength="394.90" waitingTime="0.00" waitingCount="0" stopTime="0.00" timeLoss="10.22" rerouteNo="0" devices="tripinfo_down_46" vType="car" speedFactor="1.00" vaporized=""/>
    <tripinfo id="up_71" depart="86.00" departLane="4i_0" departPos="5.10" departSpeed="0.00" departDelay="48.00" arrival="126.00" arrivalLane="2o_0" arrivalPos="183.20" arrivalSpeed="13.32" duration="40.00" routeLength="394.90" waitingTime="0.00" waitingCount="0" stopTime="0.00" timeLoss="10.73" rerouteNo="0" devices="tripinfo_up_71" vType="car" speedFactor="0.97" vaporized=""/>
    <tripinfo id="up_73" depart="91.00" departLane="4i_0" departPos="5.10" departSpeed="0.00" departDelay="52.00" arrival="130.00" arrivalLane="2o_0" arrivalPos="183.20" arrivalSpeed="14.53" duration="39.00" routeLength="394.90" waitingTime="0.00" waitingCount="0" stopTime="0.00" timeLoss="11.68" rerouteNo="0" devices="tripinfo_up_73" vType="car" speedFactor="1.06" vaporized=""/>
    <tripinfo id="down_47" depart="92.00" departLane="2i_0" departPos="5.10" departSpeed="0.00" departDelay="69.00" arrival="134.00" arrivalLane="4o_0" arrivalPos="183.20" arrivalSpeed="12.48" duration="42.00" routeLength="394.90" waitingTime="0.00" waitingCount="0" stopTime="0.00" timeLoss="9.77" rerouteNo="0" devices="tripinfo_down_47" vType="car" speedFactor="0.90" vaporized=""/>
    <tripinfo id="up_80" depart="96.00" departLane="4i_0" departPos="5.10" departSpeed="0.00" departDelay="53.00" arrival="134.00" arrivalLane="2o_0" arrivalPos="183.20" arrivalSpeed="14.01" duration="38.00" routeLength="394.90" waitingTime="0.00" waitingCount="0" stopTime="0.00" timeLoss="10.32" rerouteNo="0" devices="tripinfo_up_80" vType="car" speedFactor="1.03" vaporized=""/>
    <tripinfo id="down_51" depart="97.00" departLane="2i_0" departPos="5.10" departSpeed="0.00" departDelay="71.00" arrival="135.00" arrivalLane="4o_0" arrivalPos="183.20" arrivalSpeed="13.54" duration="38.00" routeLength="394.90" waitingTime="0.00" waitingCount="0" stopTime="0.00" timeLoss="13.66" rerouteNo="0" devices="tripinfo_down_51" vType="car" speedFactor="1.17" vaporized=""/>
    <tripinfo id="up_83" depart="101.00" departLane="4i_0" departPos="5.10" departSpeed="0.00" departDelay="56.00" arrival="142.00" arrivalLane="2o_0" arrivalPos="183.20" arrivalSpeed="13.16" duration="41.00" routeLength="394.90" waitingTime="0.00" waitingCount="0" stopTime="0.00" timeLoss="11.18" rerouteNo="0" devices="tripinfo_up_83" vType="car" speedFactor="0.97" vaporized=""/>
    <tripinfo id="down_55" depart="102.00" departLane="2i_0" departPos="5.10" departSpeed="0.00" departDelay="73.00" arrival="143.00" arrivalLane="4o_0" arrivalPos="183.20" arrivalSpeed="13.59" duration="41.00" routeLength="394.90" waitingTime="0.00" waitingCount="0" stopTime="0.00" timeLoss="11.55" rerouteNo="0" devices="tripinfo_down_55" vType="car" speedFactor="1.00" vaporized=""/>
    <tripinfo id="up_84" depart="106.00" departLane="4i_0" departPos="5.10" departSpeed="0.00" departDelay="60.00" arrival="144.00" arrivalLane="2o_0" arrivalPos="183.20" arrivalSpeed="15.81" duration="38.00" routeLength="394.90" waitingTime="0.00" waitingCount="0" stopTime="0.00" timeLoss="12.99" rerouteNo="0" devices="tripinfo_up_84" vType="car" speedFactor="1.15" vaporized=""/>
    <tripinfo id="down_59" depart="107.00" departLane="2i_0" departPos="5.10" departSpeed="0.00" departDelay="76.00" arrival="148.00" arrivalLane="4o_0" arrivalPos="183.20" arrivalSpeed="13.07" duration="41.00" routeLength="394.90" waitingTime="0.00" waitingCount="0" stopTime="0.00" timeLoss="11.45" rerouteNo="0" devices="tripinfo_down_59" vType="car" speedFactor="0.97" vaporized=""/>
    <tripinfo id="right_81" depart="80.00" departLane="3i_0" departPos="5.10" departSpeed="0.00" departDelay="36.00" arrival="160.00" arrivalLane="1o_2" arrivalPos="183.20" arrivalSpeed="13.82" duration="80.00" routeLength="394.90" waitingTime="25.00" waitingCount="1" stopTime="0.00" timeLoss="51.50" rerouteNo="0" devices="tripinfo_right_81" vType="car" speedFactor="1.00" vaporized=""/>
    <tripinfo id="right_68" depart="64.00" departLane="3i_0" departPos="5.10" departSpeed="0.00" departDelay="27.00" arrival="161.00" arrivalLane="1o_0" arrivalPos="183.20" arrivalSpeed="14.21" duration="97.00" routeLength="394.90" waitingTime="44.00" waitingCount="1" stopTime="0.00" timeLoss="68.86" rerouteNo="0" devices="tripinfo_right_68" vType="car" speedFactor="1.04" vaporized=""/>
    <tripinfo id="left_69" depart="67.00" departLane="1i_0" departPos="5.10" departSpeed="0.00" departDelay="30.00" arrival="161.00" arrivalLane="3o_0" arrivalPos="183.20" arrivalSpeed="13.97" duration="94.00" routeLength="394.90" waitingTime="40.00" waitingCount="1" stopTime="0.00" timeLoss="66.01" rerouteNo="0" devices="tripinfo_left_69" vType="car" speedFactor="1.02" vaporized=""/>
    <tripinfo id="left_76" depart="72.00" departLane="1i_0" departPos="5.10" departSpeed="0.00" departDelay="31.00" arrival="161.00" arrivalLane="3o_1" arrivalPos="183.20" arrivalSpeed="14.19" duration="89.00" routeLength="394.90" waitingTime="36.00" waitingCount="1" stopTime="0.00" timeLoss="61.10" rerouteNo="0" devices="tripinfo_left_76" vType="car" speedFactor="1.03" vaporized=""/>
    <tripinfo id="left_90" depart="83.00" departLane="1i_0" departPos="5.10" departSpeed="0.00" departDelay="34.00" arrival="161.00" arrivalLane="3o_2" arrivalPos="183.20" arrivalSpeed="13.84" duration="78.00" routeLength="394.90" waitingTime="25.00" waitingCount="1" stopTime="0.00" timeLoss="49.13" rerouteNo="0" devices="tripinfo_left_90" vType="car" speedFactor="1.02" vaporized=""/>
    <tripinfo id="right_99" depart="95.00" departLane="3i_0" departPos="5.10" departSpeed="0.00" departDelay="39.00" arrival="161.00" arrivalLane="1o_3" arrivalPos="183.20" arrivalSpeed="14.88" duration="66.00" routeLength="394.90" waitingTime="9.00" waitingCount="1" stopTime="0.00" timeLoss="40.00" rerouteNo="0" devices="tripinfo_right_99" vType="car" speedFactor="1.10" vaporized=""/>